12
	Energy:      16.2269671
C         -8.04283        0.32421        1.51679
C         -8.33049        1.58696        0.99888
C         -7.05172        0.17765        2.48723
C         -6.34826        1.29386        2.93976
C         -6.63597        2.55663        2.42189
C         -7.62709        2.70318        1.45145
H         -7.85125        3.68702        1.04798
H         -9.10265        1.70113        0.24276
H         -8.59090       -0.54545        1.16422
H         -6.82759       -0.80618        2.89075
H         -5.57604        1.17967        3.69581
H         -6.08794        3.42629        2.77450
