31
	Energy:     -42.4511932
C          0.40898       -0.56252       -1.28977
N          0.43069       -1.50682       -0.18232
C         -0.62846       -1.39547        0.81823
C         -1.65920       -2.53194        0.73934
O         -2.15741       -2.69038       -0.59604
C         -1.17211       -3.88198        1.30196
O         -2.25242       -4.82227        1.15199
C          0.04669       -4.49528        0.61187
C          1.30547       -3.66489        0.80625
N          2.48812       -4.45007        0.40380
C          3.01732       -3.78040       -0.57508
N          4.13676       -4.14730       -1.24831
C          4.61420       -5.50543       -1.24138
N          2.38171       -2.63286       -0.95356
C          1.36538       -2.51470       -0.16631
H         -0.54365       -0.02678       -1.35783
H          0.55411       -1.07703       -2.24601
H          1.20659        0.17685       -1.16561
H         -0.18795       -1.35269        1.82169
H         -1.15778       -0.44377        0.68471
H         -2.53010       -2.23246        1.33625
H         -2.46124       -3.61797       -0.66096
H         -0.96730       -3.78567        2.37507
H         -2.94630       -4.58261        1.79165
H         -0.16528       -4.65260       -0.45434
H          0.20546       -5.50220        1.02134
H          1.42870       -3.31069        1.83470
H          4.23371       -3.64624       -2.12195
H          3.89277       -6.17274       -1.72308
H          5.55783       -5.56767       -1.79156
H          4.79775       -5.85551       -0.22065
