31
	Energy:     -32.0944628
C          0.18708       -0.46521       -1.08022
N          0.31417       -1.46754       -0.04063
C         -0.48966       -1.32663        1.16491
C         -1.57047       -2.41930        1.30160
O         -2.79350       -1.97043        0.67349
C         -1.25985       -3.81076        0.70522
O         -1.42741       -3.78568       -0.71978
C          0.08988       -4.44873        1.04441
C          1.33239       -3.57330        0.89714
N          2.46702       -4.36970        0.39020
C          2.82497       -3.77010       -0.70701
N          3.84064       -4.17637       -1.51086
C          4.34351       -5.52472       -1.46972
N          2.12640       -2.65034       -1.06488
C          1.23587       -2.48656       -0.14797
H         -0.81407       -0.02109       -1.08395
H          0.34891       -0.89759       -2.07344
H          0.91885        0.33349       -0.92401
H          0.17391       -1.36422        2.03729
H         -0.95881       -0.33533        1.19557
H         -1.79481       -2.53793        2.36869
H         -3.09459       -1.17497        1.14668
H         -2.04500       -4.49457        1.05289
H         -2.16139       -3.15742       -0.87470
H          0.20478       -5.34730        0.42258
H          0.05890       -4.80702        2.08150
H          1.61231       -3.12681        1.85768
H          3.78418       -3.75183       -2.42756
H          3.57414       -6.23626       -1.78502
H          5.19711       -5.62082       -2.14735
H          4.68398       -5.78970       -0.46364
